Generated with LigParGen (israel.cabezadevaca@yale.edu)
   19
    1MOL    O00    1  -0.060   0.045   0.108
    1MOL    C01    2  -0.119   0.049  -0.016
    1MOL    C02    3   0.076   0.059   0.110
    1MOL    C03    4   0.148  -0.049   0.033
    1MOL    C04    5   0.300  -0.027   0.041
    1MOL    C05    6  -0.269   0.034  -0.002
    1MOL    C06    7  -0.330  -0.067  -0.059
    1MOL    H07    8  -0.274  -0.138  -0.116
    1MOL    H08    9  -0.437  -0.080  -0.050
    1MOL    H09   10  -0.318   0.110   0.057
    1MOL    H0A   11  -0.080  -0.039  -0.075
    1MOL    H0B   12  -0.100   0.138  -0.075
    1MOL    H0C   13   0.104   0.160   0.071
    1MOL    H0D   14   0.108   0.060   0.217
    1MOL    H0E   15   0.121  -0.041  -0.075
    1MOL    H0F   16   0.127  -0.150   0.071
    1MOL    H0G   17   0.344  -0.070  -0.052
    1MOL    H0H   18   0.318   0.084   0.040
    1MOL    H0I   19   0.340  -0.076   0.131
  10.00000  10.00000  10.00000
