;---------------------------------------------
;        Generated with LigParGen 
;        William L. Jorgensen Lab
;     Author: israel.cabezadevaca@yale.edu
;    OPLS Force Field with CM1A derived Atomic Charges
;---------------------------------------------
[ defaults ]
; nbfunc        comb-rule       gen-pairs       fudgeLJ fudgeQQ
    1               3              yes            0.5     0.5

[ atomtypes ]
  opls_800    OS    15.9990     0.000    A    2.90000E-01   5.85760E-01
  opls_801    CT    12.0110     0.000    A    3.50000E-01   2.76144E-01
  opls_802    CT    12.0110     0.000    A    3.50000E-01   2.76144E-01
  opls_803    CT    12.0110     0.000    A    3.50000E-01   2.76144E-01
  opls_804    CT    12.0110     0.000    A    3.50000E-01   2.76144E-01
  opls_805    CM    12.0110     0.000    A    3.55000E-01   3.17984E-01
  opls_806    CM    12.0110     0.000    A    3.55000E-01   3.17984E-01
  opls_807    HC     1.0080     0.000    A    2.50000E-01   1.25520E-01
  opls_808    HC     1.0080     0.000    A    2.50000E-01   1.25520E-01
  opls_809    HC     1.0080     0.000    A    2.50000E-01   1.25520E-01
  opls_810    HC     1.0080     0.000    A    2.50000E-01   1.25520E-01
  opls_811    HC     1.0080     0.000    A    2.50000E-01   1.25520E-01
  opls_812    HC     1.0080     0.000    A    2.50000E-01   1.25520E-01
  opls_813    HC     1.0080     0.000    A    2.50000E-01   1.25520E-01
  opls_814    HC     1.0080     0.000    A    2.50000E-01   1.25520E-01
  opls_815    HC     1.0080     0.000    A    2.50000E-01   1.25520E-01
  opls_816    HC     1.0080     0.000    A    2.50000E-01   1.25520E-01
  opls_817    HC     1.0080     0.000    A    2.50000E-01   1.25520E-01
  opls_818    HC     1.0080     0.000    A    2.50000E-01   1.25520E-01

[ moleculetype ]
; Name               nrexcl
  MOL                  3

[ atoms ]
;   nr       type  resnr residue  atom   cgnr     charge       mass
     1   opls_800      1    MOL   O00      1    -0.3551    15.9990 
     2   opls_801      1    MOL   C01      1     0.0330    12.0110 
     3   opls_802      1    MOL   C02      1     0.0176    12.0110 
     4   opls_803      1    MOL   C03      1    -0.2374    12.0110 
     5   opls_804      1    MOL   C04      1    -0.2442    12.0110 
     6   opls_805      1    MOL   C05      1    -0.1837    12.0110 
     7   opls_806      1    MOL   C06      1    -0.2341    12.0110 
     8   opls_807      1    MOL   H07      1     0.1291     1.0080 
     9   opls_808      1    MOL   H08      1     0.1291     1.0080 
    10   opls_809      1    MOL   H09      1     0.1509     1.0080 
    11   opls_810      1    MOL   H0A      1     0.0722     1.0080 
    12   opls_811      1    MOL   H0B      1     0.0722     1.0080 
    13   opls_812      1    MOL   H0C      1     0.0920     1.0080 
    14   opls_813      1    MOL   H0D      1     0.0920     1.0080 
    15   opls_814      1    MOL   H0E      1     0.1017     1.0080 
    16   opls_815      1    MOL   H0F      1     0.1017     1.0080 
    17   opls_816      1    MOL   H0G      1     0.0877     1.0080 
    18   opls_817      1    MOL   H0H      1     0.0877     1.0080 
    19   opls_818      1    MOL   H0I      1     0.0876     1.0080 

[ bonds ]
;  ai    aj   funct      c0       c1
    2    1    1      0.1410    267776.000
    3    1    1      0.1410    267776.000
    4    3    1      0.1529    224262.400
    5    4    1      0.1529    224262.400
    6    2    1      0.1510    265265.600
    7    6    1      0.1340    459403.200
    8    7    1      0.1080    284512.000
    9    7    1      0.1080    284512.000
   10    6    1      0.1080    284512.000
   11    2    1      0.1090    284512.000
   12    2    1      0.1090    284512.000
   13    3    1      0.1090    284512.000
   14    3    1      0.1090    284512.000
   15    4    1      0.1090    284512.000
   16    4    1      0.1090    284512.000
   17    5    1      0.1090    284512.000
   18    5    1      0.1090    284512.000
   19    5    1      0.1090    284512.000

[angles]
;  ai    aj   ak  funct      c0       c1 
    3    1    2    1       109.500    502.080
    4    3    1    1       109.500    418.400
    5    4    3    1       112.700    488.273
    6    2    1    1       109.500    418.400
    7    6    2    1       124.000    585.760
    8    7    6    1       120.000    292.880
    9    7    6    1       120.000    292.880
   10    6    2    1       117.000    292.880
   11    2    1    1       109.500    292.880
   12    2    1    1       109.500    292.880
   13    3    1    1       109.500    292.880
   14    3    1    1       109.500    292.880
   15    4    3    1       110.700    313.800
   16    4    3    1       110.700    313.800
   17    5    4    1       110.700    313.800
   18    5    4    1       110.700    313.800
   19    5    4    1       110.700    313.800
   13    3    4    1       110.700    313.800
   14    3    4    1       110.700    313.800
   15    4    5    1       110.700    313.800
   16    4    5    1       110.700    313.800
   11    2    6    1       109.500    292.880
   12    2    6    1       109.500    292.880
   10    6    7    1       120.000    292.880
    9    7    8    1       117.000    292.880
   12    2   11    1       107.800    276.144
   14    3   13    1       107.800    276.144
   16    4   15    1       107.800    276.144
   18    5   17    1       107.800    276.144
   19    5   17    1       107.800    276.144
   19    5   18    1       107.800    276.144
[ dihedrals ]
;  PROPER DIHEDRAL ANGLES
;  ai    aj   ak   al funct      c0       c1      c2      c3       c4     c5
    4    3    1    2    3       1.715   2.845    1.046  -5.607  -0.000   0.000
    5    4    3    1    3       2.874   0.582    2.092  -5.548  -0.000   0.000
    6    2    1    3    3       1.715   2.845    1.046  -5.607  -0.000   0.000
    7    6    2    1    3       1.046  -1.046    0.000  -0.000  -0.000   0.000
    8    7    6    2    3      58.576   0.000  -58.576  -0.000  -0.000   0.000
    9    7    6    2    3      58.576   0.000  -58.576  -0.000  -0.000   0.000
   10    6    2    1    3       0.979   2.937    0.000  -3.916  -0.000   0.000
   11    2    1    3    3       1.590   4.770    0.000  -6.360  -0.000   0.000
   12    2    1    3    3       1.590   4.770    0.000  -6.360  -0.000   0.000
   13    3    1    2    3       1.590   4.770    0.000  -6.360  -0.000   0.000
   14    3    1    2    3       1.590   4.770    0.000  -6.360  -0.000   0.000
   15    4    3    1    3       0.979   2.937    0.000  -3.916  -0.000   0.000
   16    4    3    1    3       0.979   2.937    0.000  -3.916  -0.000   0.000
   17    5    4    3    3       0.628   1.883    0.000  -2.510  -0.000   0.000
   18    5    4    3    3       0.628   1.883    0.000  -2.510  -0.000   0.000
   19    5    4    3    3       0.628   1.883    0.000  -2.510  -0.000   0.000
   13    3    4    5    3       0.628   1.883    0.000  -2.510  -0.000   0.000
   14    3    4    5    3       0.628   1.883    0.000  -2.510  -0.000   0.000
   11    2    6    7    3      -0.778  -2.335    0.000   3.113  -0.000   0.000
   12    2    6    7    3      -0.778  -2.335    0.000   3.113  -0.000   0.000
   10    6    7    8    3      58.576   0.000  -58.576  -0.000  -0.000   0.000
   10    6    7    9    3      58.576   0.000  -58.576  -0.000  -0.000   0.000
   11    2    6   10    3       0.665   1.996    0.000  -2.661  -0.000   0.000
   12    2    6   10    3       0.665   1.996    0.000  -2.661  -0.000   0.000
   15    4    3   13    3       0.628   1.883    0.000  -2.510  -0.000   0.000
   16    4    3   13    3       0.628   1.883    0.000  -2.510  -0.000   0.000
   15    4    3   14    3       0.628   1.883    0.000  -2.510  -0.000   0.000
   16    4    3   14    3       0.628   1.883    0.000  -2.510  -0.000   0.000
   17    5    4   15    3       0.628   1.883    0.000  -2.510  -0.000   0.000
   18    5    4   15    3       0.628   1.883    0.000  -2.510  -0.000   0.000
   19    5    4   15    3       0.628   1.883    0.000  -2.510  -0.000   0.000
   17    5    4   16    3       0.628   1.883    0.000  -2.510  -0.000   0.000
   18    5    4   16    3       0.628   1.883    0.000  -2.510  -0.000   0.000
   19    5    4   16    3       0.628   1.883    0.000  -2.510  -0.000   0.000
[ dihedrals ]
;IMPROPER DIHEDRAL ANGLES
;  ai    aj   ak   al funct      c0       c1      c2      c3       c4     c5
    2    6    7   10     4     180.000   10.460       2  
    6    7    8    9     4     180.000   10.460       2  
[ pairs ]
;  ai    aj funct
    1    5    1
    1    7    1
    1   10    1
    1   15    1
    1   16    1
    2    4    1
    2    8    1
    2    9    1
    2   13    1
    2   14    1
    3    6    1
    3   11    1
    3   12    1
    3   17    1
    3   18    1
    3   19    1
    5   13    1
    5   14    1
    7   11    1
    7   12    1
    8   10    1
    9   10    1
   10   11    1
   10   12    1
   13   15    1
   13   16    1
   14   15    1
   14   16    1
   15   17    1
   15   18    1
   15   19    1
   16   17    1
   16   18    1
   16   19    1
